# vtk DataFile Version 2.0
Scaffold 3D Brainstem 1: Scaffold Creator
ASCII
DATASET UNSTRUCTURED_GRID
POINTS 153 double
5.204542692462937 14.356508504360825 -51.66828507284114
7.8 18.9 -50.7
5.204542692463035 23.4434914956391 -49.73171492715888
5.626859810734546 11.232004902743414 -42.355186343430596
8.236643587707706 16.190036687404366 -40.60003418524209
5.626859810734546 21.14806847206532 -38.84488202705358
6.106470269758441 6.489114415184036 -33.62684823874987
8.596577176152953 12.06405877493096 -31.000356064024288
6.106470269758445 17.639003134677885 -28.373863889298704
7.464181324541078 0.589680427439963 -25.096426336114284
10.689956866790032 7.080987362840516 -21.800396705188394
7.464181324541072 13.572294298241065 -18.5043670742625
10.533370899218308 -5.246487359900085 -15.59015955123062
16.89614501297419 2.2645592450091914 -12.516127288327233
10.533370899218985 9.775605849918845 -9.442095025423692
12.671063349242276 -10.72489654376771 -5.775837621271398
19.864192241341527 -0.9408643222061096 -2.5668313218508314
12.67106334924252 8.843167899355622 0.6421749775697791
12.72773093793202 -14.756463543570097 4.580346406023924
19.186462611182886 -3.9040538557838813 7.465672611921086
12.727730937932021 6.948355832002335 10.350998817818247
11.243225629184153 -16.9613802939025 15.783325537873589
16.354320817258728 -6.477777858485826 17.594655225181207
11.24322562918415 4.005824576930847 19.405984912488822
10.673708202548534 -17.888672631215893 27.713415927414733
15.3 -7.5 28.0
10.673708202548536 2.8886726312158917 28.286584072585267
3.575012401145494 15.937304689665861 -51.331394082530224
3.9000000000000314 18.899999999999988 -50.7
3.5750124011455364 21.862695310334104 -50.06860591746978
3.8106680257343375 12.938348533588186 -41.75113763290115
4.118321793853853 16.190036687404366 -40.60003418524209
3.810668025734337 19.441724841220545 -39.44893073758303
4.05104121493646 8.349154547840257 -32.7505379945847
4.298288588076476 12.06405877493096 -31.000356064024288
4.051041214936462 15.778963002021666 -29.25017413346388
4.994282367336205 2.7898181805911078 -23.97928316314901
5.344978433395016 7.080987362840514 -21.800396705188394
4.994282367336202 11.37215654508992 -19.62151024722778
7.573099919345969 -2.6380962546057365 -14.522628109380125
8.448072506487192 2.264559245009448 -12.516127288327127
7.573099919346304 7.167214744624632 -10.509626467274128
8.965147773605839 -7.304692445252862 -4.6540653040001025
9.932096120670797 -0.9408643222060188 -2.5668313218508017
8.965147773605954 5.42296380084083 -0.4795973397014992
8.774821883354111 -10.973762277321617 5.58605181215788
9.593231305591441 -3.904053855783881 7.465672611921086
8.774821883354111 3.165654565753856 9.345293411684292
7.586797244907382 -13.367394023970778 16.404285180954957
8.177160408629366 -6.477777858485827 17.594655225181207
7.586797244907382 0.41183830699912505 18.785025269407456
7.1450805798842705 -14.365055228343012 27.810619166114677
7.650000000000001 -7.5 28.0
7.1450805798842705 -0.6349447716569889 28.189380833885323
2.209560170082712e-15 12.799999999999999 -52.0
2.4764782478194244e-14 15.849999999999998 -51.35
6.282773731461625e-14 18.9 -50.7
9.084796129330252e-14 21.95 -50.050000000000004
1.234459144591498e-13 25.0 -49.400000000000006
5.043489602701907e-16 9.400802019153556 -43.00343545372417
1.1322865432263947e-16 12.795419353278959 -41.80173481948313
-4.1010217540023405e-16 16.190036687404366 -40.60003418524209
-8.550452622859457e-16 19.584654021529772 -39.398333551001045
-1.3245533110706594e-15 22.979271355655175 -38.19663291676
-3.291258629452902e-15 4.143543643591557 -34.73190380151649
-2.148689410414853e-15 8.10380120926126 -32.866129932770384
-1.3824350466664787e-15 12.064058774930961 -31.000356064024288
-2.5767436905340917e-16 16.024316340600667 -29.13458219527819
5.263885361199454e-16 19.98457390627037 -27.26880832653209
3.0282183221489025e-15 -1.986839238791922 -26.404681399243504
1.3504550668029757e-15 2.547074062024296 -24.10253905221595
-5.322525515791256e-16 7.0809873628405136 -21.800396705188394
-2.2945311823891974e-15 11.61490066365673 -19.49825435816084
-4.0927234253071526e-15 16.148813964472946 -17.196112011133284
1.034590495403418e-15 -7.341732247024944 -16.447676581879236
7.27370059227609e-14 -2.5385865010077064 -14.481901935103163
1.9237118054765989e-13 2.264559245009532 -12.516127288327091
2.938554929211847e-13 7.067704991026773 -10.550352641551019
3.8370777059991645e-13 11.870850737044012 -8.584577994774948
-3.1944057460832225e-15 -13.645223137747942 -6.733658101031863
2.3450913636588293e-14 -7.293043729976961 -4.650244711441325
6.73773817480536e-14 -0.9408643222059787 -2.5668313218507883
1.0367269287709674e-13 5.411315085565006 -0.4834179322602504
1.3794916924219042e-13 11.763494493335985 1.5999954573302864
-3.0854185092217144e-15 -18.4069766045384 3.609785829819736
-2.8494751651889886e-15 -11.15551523016114 5.5377292208704105
-3.0854185092217144e-15 -3.9040538557838813 7.465672611921086
-2.8494751651889886e-15 3.3474075185933767 9.393616002971761
-3.0854185092217144e-15 10.598868892970637 11.321559394022437
4.6328020367396705e-15 -20.913909539150822 15.100417767765526
4.168109999391017e-15 -13.695843698818324 16.347536496473364
4.6328020367396705e-15 -6.477777858485826 17.594655225181207
4.168109999391017e-15 0.7402879818466703 18.841773953889046
4.6328020367396705e-15 7.95835382217917 20.088892682596885
9.368548013477252e-16 -22.0 27.6
8.315942077984628e-16 -14.75 27.8
9.368548013477252e-16 -7.5 28.0
8.315942077984628e-16 -0.2500000000000022 28.2
9.368548013477252e-16 7.0 28.4
-3.575012401145494 15.937304689665861 -51.331394082530224
-3.9000000000000314 18.899999999999988 -50.7
-3.5750124011455364 21.862695310334104 -50.06860591746978
-3.8106680257343375 12.938348533588186 -41.75113763290115
-4.118321793853853 16.190036687404366 -40.60003418524209
-3.810668025734337 19.441724841220545 -39.44893073758303
-4.05104121493646 8.349154547840257 -32.7505379945847
-4.298288588076476 12.06405877493096 -31.000356064024288
-4.051041214936462 15.778963002021666 -29.25017413346388
-4.994282367336205 2.7898181805911078 -23.97928316314901
-5.344978433395016 7.080987362840514 -21.800396705188394
-4.994282367336202 11.37215654508992 -19.62151024722778
-7.573099919345969 -2.6380962546057365 -14.522628109380125
-8.448072506487192 2.264559245009448 -12.516127288327127
-7.573099919346304 7.167214744624632 -10.509626467274128
-8.965147773605839 -7.304692445252862 -4.6540653040001025
-9.932096120670797 -0.9408643222060188 -2.5668313218508017
-8.965147773605954 5.42296380084083 -0.4795973397014992
-8.774821883354111 -10.973762277321617 5.58605181215788
-9.593231305591441 -3.904053855783881 7.465672611921086
-8.774821883354111 3.165654565753856 9.345293411684292
-7.586797244907382 -13.367394023970778 16.404285180954957
-8.177160408629366 -6.477777858485827 17.594655225181207
-7.586797244907382 0.41183830699912505 18.785025269407456
-7.1450805798842705 -14.365055228343012 27.810619166114677
-7.650000000000001 -7.5 28.0
-7.1450805798842705 -0.6349447716569889 28.189380833885323
-5.204542692462937 14.356508504360825 -51.66828507284114
-7.8 18.9 -50.7
-5.204542692463035 23.4434914956391 -49.73171492715888
-5.626859810734546 11.232004902743414 -42.355186343430596
-8.236643587707706 16.190036687404366 -40.60003418524209
-5.626859810734546 21.14806847206532 -38.84488202705358
-6.106470269758441 6.489114415184036 -33.62684823874987
-8.596577176152953 12.06405877493096 -31.000356064024288
-6.106470269758445 17.639003134677885 -28.373863889298704
-7.464181324541078 0.589680427439963 -25.096426336114284
-10.689956866790032 7.080987362840516 -21.800396705188394
-7.464181324541072 13.572294298241065 -18.5043670742625
-10.533370899218308 -5.246487359900085 -15.59015955123062
-16.89614501297419 2.2645592450091914 -12.516127288327233
-10.533370899218985 9.775605849918845 -9.442095025423692
-12.671063349242276 -10.72489654376771 -5.775837621271398
-19.864192241341527 -0.9408643222061096 -2.5668313218508314
-12.67106334924252 8.843167899355622 0.6421749775697791
-12.72773093793202 -14.756463543570097 4.580346406023924
-19.186462611182886 -3.9040538557838813 7.465672611921086
-12.727730937932021 6.948355832002335 10.350998817818247
-11.243225629184153 -16.9613802939025 15.783325537873589
-16.354320817258728 -6.477777858485826 17.594655225181207
-11.24322562918415 4.005824576930847 19.405984912488822
-10.673708202548534 -17.888672631215893 27.713415927414733
-15.3 -7.5 28.0
-10.673708202548536 2.8886726312158917 28.286584072585267
CELLS 96 864
8 0 27 30 3 1 28 31 4
8 1 28 31 4 2 29 32 5
8 0 54 59 3 27 55 60 30
8 27 55 60 30 28 56 61 31
8 28 56 61 31 29 57 62 32
8 29 57 62 32 2 58 63 5
8 54 126 129 59 55 99 102 60
8 55 99 102 60 56 100 103 61
8 56 100 103 61 57 101 104 62
8 57 101 104 62 58 128 131 63
8 99 126 129 102 100 127 130 103
8 100 127 130 103 101 128 131 104
8 3 30 33 6 4 31 34 7
8 4 31 34 7 5 32 35 8
8 3 59 64 6 30 60 65 33
8 30 60 65 33 31 61 66 34
8 31 61 66 34 32 62 67 35
8 32 62 67 35 5 63 68 8
8 59 129 132 64 60 102 105 65
8 60 102 105 65 61 103 106 66
8 61 103 106 66 62 104 107 67
8 62 104 107 67 63 131 134 68
8 102 129 132 105 103 130 133 106
8 103 130 133 106 104 131 134 107
8 6 33 36 9 7 34 37 10
8 7 34 37 10 8 35 38 11
8 6 64 69 9 33 65 70 36
8 33 65 70 36 34 66 71 37
8 34 66 71 37 35 67 72 38
8 35 67 72 38 8 68 73 11
8 64 132 135 69 65 105 108 70
8 65 105 108 70 66 106 109 71
8 66 106 109 71 67 107 110 72
8 67 107 110 72 68 134 137 73
8 105 132 135 108 106 133 136 109
8 106 133 136 109 107 134 137 110
8 9 36 39 12 10 37 40 13
8 10 37 40 13 11 38 41 14
8 9 69 74 12 36 70 75 39
8 36 70 75 39 37 71 76 40
8 37 71 76 40 38 72 77 41
8 38 72 77 41 11 73 78 14
8 69 135 138 74 70 108 111 75
8 70 108 111 75 71 109 112 76
8 71 109 112 76 72 110 113 77
8 72 110 113 77 73 137 140 78
8 108 135 138 111 109 136 139 112
8 109 136 139 112 110 137 140 113
8 12 39 42 15 13 40 43 16
8 13 40 43 16 14 41 44 17
8 12 74 79 15 39 75 80 42
8 39 75 80 42 40 76 81 43
8 40 76 81 43 41 77 82 44
8 41 77 82 44 14 78 83 17
8 74 138 141 79 75 111 114 80
8 75 111 114 80 76 112 115 81
8 76 112 115 81 77 113 116 82
8 77 113 116 82 78 140 143 83
8 111 138 141 114 112 139 142 115
8 112 139 142 115 113 140 143 116
8 15 42 45 18 16 43 46 19
8 16 43 46 19 17 44 47 20
8 15 79 84 18 42 80 85 45
8 42 80 85 45 43 81 86 46
8 43 81 86 46 44 82 87 47
8 44 82 87 47 17 83 88 20
8 79 141 144 84 80 114 117 85
8 80 114 117 85 81 115 118 86
8 81 115 118 86 82 116 119 87
8 82 116 119 87 83 143 146 88
8 114 141 144 117 115 142 145 118
8 115 142 145 118 116 143 146 119
8 18 45 48 21 19 46 49 22
8 19 46 49 22 20 47 50 23
8 18 84 89 21 45 85 90 48
8 45 85 90 48 46 86 91 49
8 46 86 91 49 47 87 92 50
8 47 87 92 50 20 88 93 23
8 84 144 147 89 85 117 120 90
8 85 117 120 90 86 118 121 91
8 86 118 121 91 87 119 122 92
8 87 119 122 92 88 146 149 93
8 117 144 147 120 118 145 148 121
8 118 145 148 121 119 146 149 122
8 21 48 51 24 22 49 52 25
8 22 49 52 25 23 50 53 26
8 21 89 94 24 48 90 95 51
8 48 90 95 51 49 91 96 52
8 49 91 96 52 50 92 97 53
8 50 92 97 53 23 93 98 26
8 89 147 150 94 90 120 123 95
8 90 120 123 95 91 121 124 96
8 91 121 124 96 92 122 125 97
8 92 122 125 97 93 149 152 98
8 120 147 150 123 121 148 151 124
8 121 148 151 124 122 149 152 125
CELL_TYPES 96
12 12 12 12 12 12 12 12 12 12 12 12 12 12 12 12 12 12 12 12 12 12 12 12 12 12 12 12 12 12 12 12 12 12 12 12 12 12 12 12 12 12 12 12 12 12 12 12 12 12 12 12 12 12 12 12 12 12 12 12 12 12 12 12 12 12 12 12 12 12 12 12 12 12 12 12 12 12 12 12 12 12 12 12 12 12 12 12 12 12 12 12 12 12 12 12
CELL_DATA 96
SCALARS brainstem int 1
LOOKUP_TABLE default
1 1 1 1 1 1 1 1 1 1 1 1 1 1 1 1 1 1 1 1 1 1 1 1 1 1 1 1 1 1 1 1 1 1 1 1 1 1 1 1 1 1 1 1 1 1 1 1 1 1 1 1 1 1 1 1 1 1 1 1 1 1 1 1 1 1 1 1 1 1 1 1 1 1 1 1 1 1 1 1 1 1 1 1 1 1 1 1 1 1 1 1 1 1 1 1 
SCALARS medulla_oblongata int 1
LOOKUP_TABLE default
1 1 1 1 1 1 1 1 1 1 1 1 1 1 1 1 1 1 1 1 1 1 1 1 1 1 1 1 1 1 1 1 1 1 1 1 0 0 0 0 0 0 0 0 0 0 0 0 0 0 0 0 0 0 0 0 0 0 0 0 0 0 0 0 0 0 0 0 0 0 0 0 0 0 0 0 0 0 0 0 0 0 0 0 0 0 0 0 0 0 0 0 0 0 0 0 
SCALARS midbrain int 1
LOOKUP_TABLE default
0 0 0 0 0 0 0 0 0 0 0 0 0 0 0 0 0 0 0 0 0 0 0 0 0 0 0 0 0 0 0 0 0 0 0 0 0 0 0 0 0 0 0 0 0 0 0 0 0 0 0 0 0 0 0 0 0 0 0 0 0 0 0 0 0 0 0 0 0 0 0 0 1 1 1 1 1 1 1 1 1 1 1 1 1 1 1 1 1 1 1 1 1 1 1 1 
SCALARS pons int 1
LOOKUP_TABLE default
0 0 0 0 0 0 0 0 0 0 0 0 0 0 0 0 0 0 0 0 0 0 0 0 0 0 0 0 0 0 0 0 0 0 0 0 1 1 1 1 1 1 1 1 1 1 1 1 1 1 1 1 1 1 1 1 1 1 1 1 1 1 1 1 1 1 1 1 1 1 1 1 0 0 0 0 0 0 0 0 0 0 0 0 0 0 0 0 0 0 0 0 0 0 0 0 
POINT_DATA 153
SCALARS brainstem_dorsal_midline_caudal_point int 1
LOOKUP_TABLE default
0 0 0 0 0 0 0 0 0 0 0 0 0 0 0 0 0 0 0 0 0 0 0 0 0 0 0 0 0 0 0 0 0 0 0 0 0 0 0 0 0 0 0 0 0 0 0 0 0 0 0 0 0 0 0 0 0 0 0 0 0 0 0 0 0 0 0 0 0 0 0 0 0 0 0 0 0 0 0 0 0 0 0 0 0 0 0 0 0 0 0 0 0 0 0 0 0 0 0 0 0 0 0 0 0 0 0 0 0 0 0 0 0 0 0 0 0 0 0 0 0 0 0 0 0 0 0 0 0 0 0 0 0 0 0 0 0 0 0 0 0 0 0 0 0 0 0 0 0 0 0 0 0 
SCALARS brainstem_dorsal_midline_cranial_point int 1
LOOKUP_TABLE default
0 0 0 0 0 0 0 0 0 0 0 0 0 0 0 0 0 0 0 0 0 0 0 0 0 0 0 0 0 0 0 0 0 0 0 0 0 0 0 0 0 0 0 0 0 0 0 0 0 0 0 0 0 0 0 0 0 0 0 0 0 0 0 0 0 0 0 0 0 0 0 0 0 0 0 0 0 0 0 0 0 0 0 0 0 0 0 0 0 0 0 0 0 0 0 0 0 0 0 0 0 0 0 0 0 0 0 0 0 0 0 0 0 0 0 0 0 0 0 0 0 0 0 0 0 0 0 0 0 0 0 0 0 0 0 0 0 0 0 0 0 0 0 0 0 0 0 0 0 0 0 0 0 
SCALARS brainstem_dorsal_midline_midbrain-pons_junction int 1
LOOKUP_TABLE default
0 0 0 0 0 0 0 0 0 0 0 0 0 0 0 0 0 0 0 0 0 0 0 0 0 0 0 0 0 0 0 0 0 0 0 0 0 0 0 0 0 0 0 0 0 0 0 0 0 0 0 0 0 0 0 0 0 0 0 0 0 0 0 0 0 0 0 0 0 0 0 0 0 0 0 0 0 0 0 0 0 0 0 0 0 0 0 0 0 0 0 0 0 0 0 0 0 0 0 0 0 0 0 0 0 0 0 0 0 0 0 0 0 0 0 0 0 0 0 0 0 0 0 0 0 0 0 0 0 0 0 0 0 0 0 0 0 0 0 0 0 0 0 0 0 0 0 0 0 0 0 0 0 
SCALARS brainstem_dorsal_midline_pons-medulla_junction int 1
LOOKUP_TABLE default
0 0 0 0 0 0 0 0 0 0 0 0 0 0 0 0 0 0 0 0 0 0 0 0 0 0 0 0 0 0 0 0 0 0 0 0 0 0 0 0 0 0 0 0 0 0 0 0 0 0 0 0 0 0 0 0 0 0 0 0 0 0 0 0 0 0 0 0 0 0 0 0 0 0 0 0 0 0 0 0 0 0 0 0 0 0 0 0 0 0 0 0 0 0 0 0 0 0 0 0 0 0 0 0 0 0 0 0 0 0 0 0 0 0 0 0 0 0 0 0 0 0 0 0 0 0 0 0 0 0 0 0 0 0 0 0 0 0 0 0 0 0 0 0 0 0 0 0 0 0 0 0 0 
SCALARS brainstem_exterior int 1
LOOKUP_TABLE default
1 1 1 1 1 1 1 1 1 1 1 1 1 1 1 1 1 1 1 1 1 1 1 1 1 1 1 0 0 0 0 0 0 0 0 0 0 0 0 0 0 0 0 0 0 0 0 0 0 0 0 0 0 0 1 0 0 0 1 1 0 0 0 1 1 0 0 0 1 1 0 0 0 1 1 0 0 0 1 1 0 0 0 1 1 0 0 0 1 1 0 0 0 1 1 0 0 0 1 0 0 0 0 0 0 0 0 0 0 0 0 0 0 0 0 0 0 0 0 0 0 0 0 0 0 0 1 1 1 1 1 1 1 1 1 1 1 1 1 1 1 1 1 1 1 1 1 1 1 1 1 1 1 
SCALARS brainstem_ventral_midline_caudal_point int 1
LOOKUP_TABLE default
0 0 0 0 0 0 0 0 0 0 0 0 0 0 0 0 0 0 0 0 0 0 0 0 0 0 0 0 0 0 0 0 0 0 0 0 0 0 0 0 0 0 0 0 0 0 0 0 0 0 0 0 0 0 0 0 0 0 0 0 0 0 0 0 0 0 0 0 0 0 0 0 0 0 0 0 0 0 0 0 0 0 0 0 0 0 0 0 0 0 0 0 0 0 0 0 0 0 0 0 0 0 0 0 0 0 0 0 0 0 0 0 0 0 0 0 0 0 0 0 0 0 0 0 0 0 0 0 0 0 0 0 0 0 0 0 0 0 0 0 0 0 0 0 0 0 0 0 0 0 0 0 0 
SCALARS brainstem_ventral_midline_cranial_point int 1
LOOKUP_TABLE default
0 0 0 0 0 0 0 0 0 0 0 0 0 0 0 0 0 0 0 0 0 0 0 0 0 0 0 0 0 0 0 0 0 0 0 0 0 0 0 0 0 0 0 0 0 0 0 0 0 0 0 0 0 0 0 0 0 0 0 0 0 0 0 0 0 0 0 0 0 0 0 0 0 0 0 0 0 0 0 0 0 0 0 0 0 0 0 0 0 0 0 0 0 0 0 0 0 0 0 0 0 0 0 0 0 0 0 0 0 0 0 0 0 0 0 0 0 0 0 0 0 0 0 0 0 0 0 0 0 0 0 0 0 0 0 0 0 0 0 0 0 0 0 0 0 0 0 0 0 0 0 0 0 
SCALARS brainstem_ventral_midline_midbrain-pons_junction int 1
LOOKUP_TABLE default
0 0 0 0 0 0 0 0 0 0 0 0 0 0 0 0 0 0 0 0 0 0 0 0 0 0 0 0 0 0 0 0 0 0 0 0 0 0 0 0 0 0 0 0 0 0 0 0 0 0 0 0 0 0 0 0 0 0 0 0 0 0 0 0 0 0 0 0 0 0 0 0 0 0 0 0 0 0 0 0 0 0 0 0 0 0 0 0 0 0 0 0 0 0 0 0 0 0 0 0 0 0 0 0 0 0 0 0 0 0 0 0 0 0 0 0 0 0 0 0 0 0 0 0 0 0 0 0 0 0 0 0 0 0 0 0 0 0 0 0 0 0 0 0 0 0 0 0 0 0 0 0 0 
SCALARS brainstem_ventral_midline_pons-medulla_junction int 1
LOOKUP_TABLE default
0 0 0 0 0 0 0 0 0 0 0 0 0 0 0 0 0 0 0 0 0 0 0 0 0 0 0 0 0 0 0 0 0 0 0 0 0 0 0 0 0 0 0 0 0 0 0 0 0 0 0 0 0 0 0 0 0 0 0 0 0 0 0 0 0 0 0 0 0 0 0 0 0 0 0 0 0 0 0 0 0 0 0 0 0 0 0 0 0 0 0 0 0 0 0 0 0 0 0 0 0 0 0 0 0 0 0 0 0 0 0 0 0 0 0 0 0 0 0 0 0 0 0 0 0 0 0 0 0 0 0 0 0 0 0 0 0 0 0 0 0 0 0 0 0 0 0 0 0 0 0 0 0 
SCALARS brainstem-spinal_cord_interface int 1
LOOKUP_TABLE default
1 1 1 0 0 0 0 0 0 0 0 0 0 0 0 0 0 0 0 0 0 0 0 0 0 0 0 1 1 1 0 0 0 0 0 0 0 0 0 0 0 0 0 0 0 0 0 0 0 0 0 0 0 0 1 1 1 1 1 0 0 0 0 0 0 0 0 0 0 0 0 0 0 0 0 0 0 0 0 0 0 0 0 0 0 0 0 0 0 0 0 0 0 0 0 0 0 0 0 1 1 1 0 0 0 0 0 0 0 0 0 0 0 0 0 0 0 0 0 0 0 0 0 0 0 0 1 1 1 0 0 0 0 0 0 0 0 0 0 0 0 0 0 0 0 0 0 0 0 0 0 0 0 
SCALARS medulla_oblongata_exterior int 1
LOOKUP_TABLE default
1 1 1 1 1 1 1 1 1 1 1 1 0 0 0 0 0 0 0 0 0 0 0 0 0 0 0 0 0 0 0 0 0 0 0 0 0 0 0 0 0 0 0 0 0 0 0 0 0 0 0 0 0 0 1 0 0 0 1 1 0 0 0 1 1 0 0 0 1 1 0 0 0 1 0 0 0 0 0 0 0 0 0 0 0 0 0 0 0 0 0 0 0 0 0 0 0 0 0 0 0 0 0 0 0 0 0 0 0 0 0 0 0 0 0 0 0 0 0 0 0 0 0 0 0 0 1 1 1 1 1 1 1 1 1 1 1 1 0 0 0 0 0 0 0 0 0 0 0 0 0 0 0 
SCALARS midbrain_exterior int 1
LOOKUP_TABLE default
0 0 0 0 0 0 0 0 0 0 0 0 0 0 0 0 0 0 1 1 1 1 1 1 1 1 1 0 0 0 0 0 0 0 0 0 0 0 0 0 0 0 0 0 0 0 0 0 0 0 0 0 0 0 0 0 0 0 0 0 0 0 0 0 0 0 0 0 0 0 0 0 0 0 0 0 0 0 0 0 0 0 0 0 1 0 0 0 1 1 0 0 0 1 1 0 0 0 1 0 0 0 0 0 0 0 0 0 0 0 0 0 0 0 0 0 0 0 0 0 0 0 0 0 0 0 0 0 0 0 0 0 0 0 0 0 0 0 0 0 0 0 0 0 1 1 1 1 1 1 1 1 1 
SCALARS pons_exterior int 1
LOOKUP_TABLE default
0 0 0 0 0 0 0 0 0 1 1 1 1 1 1 1 1 1 1 1 1 0 0 0 0 0 0 0 0 0 0 0 0 0 0 0 0 0 0 0 0 0 0 0 0 0 0 0 0 0 0 0 0 0 0 0 0 0 0 0 0 0 0 0 0 0 0 0 0 1 0 0 0 1 1 0 0 0 1 1 0 0 0 1 1 0 0 0 1 0 0 0 0 0 0 0 0 0 0 0 0 0 0 0 0 0 0 0 0 0 0 0 0 0 0 0 0 0 0 0 0 0 0 0 0 0 0 0 0 0 0 0 0 0 0 1 1 1 1 1 1 1 1 1 1 1 1 0 0 0 0 0 0 
SCALARS thalamus-brainstem_interface int 1
LOOKUP_TABLE default
0 0 0 0 0 0 0 0 0 0 0 0 0 0 0 0 0 0 0 0 0 0 0 0 1 1 1 0 0 0 0 0 0 0 0 0 0 0 0 0 0 0 0 0 0 0 0 0 0 0 0 1 1 1 0 0 0 0 0 0 0 0 0 0 0 0 0 0 0 0 0 0 0 0 0 0 0 0 0 0 0 0 0 0 0 0 0 0 0 0 0 0 0 0 1 1 1 1 1 0 0 0 0 0 0 0 0 0 0 0 0 0 0 0 0 0 0 0 0 0 0 0 0 1 1 1 0 0 0 0 0 0 0 0 0 0 0 0 0 0 0 0 0 0 0 0 0 0 0 0 1 1 1 
